                         Program Version 6.0.0  -   RELEASE   -
|  1> # optimasi triazine
|  2> # baris kode yang diawali tagar tidak akan dieksekusi
|  3> ! PBE def2-SVP SP
|  4> * xyz 2 2
|  5> 	Cu        -0.50221        1.15316       -0.36208
|  6> 	N          1.07620        2.33982       -0.59676
|  7> 	N         -2.16178        0.00830       -0.14467
|  8> 	N         -1.55836        2.58953       -0.84143
|  9> 	N          0.58952       -0.40411        0.15411
| 10> 	H          1.91432        2.95410       -0.71686
| 11> 	H          0.46308        3.23002       -0.89111
| 12> 	H          1.75712        1.64031       -0.35235
| 13> 	H         -0.78972        3.22935       -0.97339
| 14> 	H         -2.09034        3.43792       -1.11851
| 15> 	H         -2.50653        2.02169       -0.74182
| 16> 	H         -3.19553       -0.68979       -0.01353
| 17> 	H         -3.13172        0.75416       -0.42132
| 18> 	H         -1.74928       -1.06569        0.18892
| 19> 	H          1.31770       -1.24077        0.44076
| 20> 	H          1.61828        0.19400        0.05117
| 21> 	H         -0.23580       -1.17882        0.32082
| 22> *
| 23>
| 24>
| 25>                          ****END OF INPUT****

CARTESIAN COORDINATES (ANGSTROEM)
---------------------------------
  Cu    -0.502210    1.153160   -0.362080
  N      1.076200    2.339820   -0.596760
  N     -2.161780    0.008300   -0.144670
  N     -1.558360    2.589530   -0.841430
  N      0.589520   -0.404110    0.154110
  H      1.914320    2.954100   -0.716860
  H      0.463080    3.230020   -0.891110
  H      1.757120    1.640310   -0.352350
  H     -0.789720    3.229350   -0.973390
  H     -2.090340    3.437920   -1.118510
  H     -2.506530    2.021690   -0.741820
  H     -3.195530   -0.689790   -0.013530
  H     -3.131720    0.754160   -0.421320
  H     -1.749280   -1.065690    0.188920
  H      1.317700   -1.240770    0.440760
  H      1.618280    0.194000    0.051170
  H     -0.235800   -1.178820    0.320820

 Total Charge           Charge          ....    2
 Multiplicity           Mult            ....    2
 Number of Electrons    NEL             ....   67
 Basis Dimension        Dim             ....  147

ORBITAL ENERGIES
----------------
                 SPIN UP ORBITALS
  NO   OCC          E(Eh)            E(eV)
   0   1.0000    -322.004091     -8762.1768
   1   1.0000     -38.795878     -1055.6895
   2   1.0000     -34.103428      -928.0015
   3   1.0000     -34.102501      -927.9762
   4   1.0000     -34.092126      -927.6939
   5   1.0000     -14.374001      -391.1365
   6   1.0000     -14.358183      -390.7060
   7   1.0000     -14.354310      -390.6006
   8   1.0000     -14.350135      -390.4870
   9   1.0000      -4.587629      -124.8357
  10   1.0000      -3.140308       -85.4521
  11   1.0000      -3.134776       -85.3016
  12   1.0000      -3.087483       -84.0147
  13   1.0000      -1.177460       -32.0403
  14   1.0000      -1.145749       -31.1774
  15   1.0000      -1.109466       -30.1901
  16   1.0000      -1.090465       -29.6731
  17   1.0000      -0.918851       -25.0032
  18   1.0000      -0.855736       -23.2858
  19   1.0000      -0.840645       -22.8751
  20   1.0000      -0.809088       -22.0164
  21   1.0000      -0.786834       -21.4108
  22   1.0000      -0.776320       -21.1247
  23   1.0000      -0.731076       -19.8936
  24   1.0000      -0.723377       -19.6841
  25   1.0000      -0.676694       -18.4138
  26   1.0000      -0.674877       -18.3643
  27   1.0000      -0.668249       -18.1840
  28   1.0000      -0.644832       -17.5468
  29   1.0000      -0.605083       -16.4651
  30   1.0000      -0.590010       -16.0550
  31   1.0000      -0.554045       -15.0763
  32   1.0000      -0.546534       -14.8719
  33   1.0000      -0.539483       -14.6801
  34   0.0000      -0.512093       -13.9348
  35   0.0000      -0.427548       -11.6342
  36   0.0000      -0.414913       -11.2904
  37   0.0000      -0.368300       -10.0220
  38   0.0000      -0.315521        -8.5858

                 SPIN DOWN ORBITALS
  NO   OCC          E(Eh)            E(eV)
   0   1.0000    -322.004019     -8762.1748
   1   1.0000     -38.780748     -1055.2778
   2   1.0000     -34.088283      -927.5893
   3   1.0000     -34.088248      -927.5884
   4   1.0000     -34.087891      -927.5787
   5   1.0000     -14.372134      -391.0857
   6   1.0000     -14.356950      -390.6725
   7   1.0000     -14.352965      -390.5640
   8   1.0000     -14.348606      -390.4454
   9   1.0000      -4.558168      -124.0341
  10   1.0000      -3.101069       -84.3844
  11   1.0000      -3.098276       -84.3084
  12   1.0000      -3.077486       -83.7427
  13   1.0000      -1.174316       -31.9548
  14   1.0000      -1.142383       -31.0858
  15   1.0000      -1.106468       -30.1085
  16   1.0000      -1.086947       -29.5773
  17   1.0000      -0.917074       -24.9549
  18   1.0000      -0.853461       -23.2239
  19   1.0000      -0.838680       -22.8217
  20   1.0000      -0.800976       -21.7957
  21   1.0000      -0.774540       -21.0763
  22   1.0000      -0.760851       -20.7038
  23   1.0000      -0.723963       -19.7000
  24   1.0000      -0.714209       -19.4346
  25   1.0000      -0.665163       -18.1000
  26   1.0000      -0.663851       -18.0643
  27   1.0000      -0.654241       -17.8028
  28   1.0000      -0.627417       -17.0729
  29   1.0000      -0.587864       -15.9966
  30   1.0000      -0.551036       -14.9945
  31   1.0000      -0.542718       -14.7681
  32   1.0000      -0.536668       -14.6035
  33   0.0000      -0.561812       -15.2877
  34   0.0000      -0.510527       -13.8922
  35   0.0000      -0.425984       -11.5916
  36   0.0000      -0.413267       -11.2456
  37   0.0000      -0.360966        -9.8224

MULLIKEN ATOMIC CHARGES AND SPIN POPULATIONS
--------------------------------------------
   0 Cu:    0.527046    0.577555
   1 N :   -0.303343    0.050957
   2 N :   -0.523398    0.059400
   3 N :   -0.274333    0.050874
   4 N :   -0.443186    0.047409
   5 H :    0.214593    0.043539
   6 H :    0.254038    0.001982
   7 H :    0.188160    0.001507
   8 H :    0.176459    0.002802
   9 H :    0.214427    0.043728
  10 H :    0.251662    0.001303
  11 H :    0.290364    0.073212
  12 H :    0.307726   -0.003536
  13 H :    0.293190   -0.002441
  14 H :    0.257132    0.049661
  15 H :    0.302561    0.002339
  16 H :    0.266901   -0.000292
Sum of atomic charges         :    2.0000000

LOEWDIN ATOMIC CHARGES AND SPIN POPULATIONS
-------------------------------------------
   0 Cu:    0.438479    0.583165
   1 N :   -0.168057    0.058227
   2 N :   -0.359442    0.068465
   3 N :   -0.142603    0.057214
   4 N :   -0.287307    0.052974
   5 H :    0.184509    0.031957
   6 H :    0.208103    0.003765
   7 H :    0.137104    0.003775
   8 H :    0.132881    0.005078
   9 H :    0.186746    0.031910
  10 H :    0.201826    0.002685
  11 H :    0.273282    0.058595
  12 H :    0.264017   -0.001435
  13 H :    0.239863   -0.000618
  14 H :    0.221585    0.039040
  15 H :    0.256087    0.003877
  16 H :    0.212928    0.001325

  Mayer bond orders larger than 0.100000
B(  0-Cu,  1-N ) :   0.4702 B(  0-Cu,  2-N ) :   0.4929 B(  0-Cu,  3-N ) :   0.5700
B(  0-Cu,  4-N ) :   0.5404 B(  1-N ,  5-H ) :   0.8083 B(  1-N ,  6-H ) :   0.7859
B(  1-N ,  7-H ) :   0.8230 B(  2-N , 11-H ) :   0.6962 B(  2-N , 12-H ) :   0.7134
B(  2-N , 13-H ) :   0.7309 B(  3-N ,  8-H ) :   0.7871 B(  3-N ,  9-H ) :   0.8042
B(  3-N , 10-H ) :   0.7531 B(  4-N , 14-H ) :   0.7851 B(  4-N , 15-H ) :   0.7294
B(  4-N , 16-H ) :   0.7707

FINAL SINGLE POINT ENERGY     -1864.650363450851

DIPOLE MOMENT
-------------

Method             : SCF
Type of density    : Electron Density
Multiplicity       :   2
Irrep              :   0
Energy             : -1864.6503634508508185 Eh
Relativity type    :
Basis              : AO
                                X                 Y                 Z
Electronic contribution:      0.104691966       0.102992096      -0.022726024
Nuclear contribution   :     -0.507339430      -0.440817136       0.092398059
                        -----------------------------------------
Total Dipole Moment    :     -0.402647464      -0.337825040       0.069672035
                        -----------------------------------------
Magnitude (a.u.)       :      0.530193295
Magnitude (Debye)      :      1.347644257

Rotational constants in cm-1:             0.119591             0.106184             0.056245
Rotational constants in MHz :          3585.257311          3183.312809          1686.175266

                             ****ORCA TERMINATED NORMALLY****
TOTAL RUN TIME: 0 days 0 hours 0 minutes 34 seconds 856 msec
