                         Program Version 6.0.0  -   RELEASE   -
|  1> # optimasi triazine
|  2> # baris kode yang diawali tagar tidak akan dieksekusi
|  3> ! PBE def2-SVP Opt
|  4> * xyz 2 2
|  5> 	Cu        -0.20428        0.43186       -0.00348
|  6> 	N         -0.24346        2.20180       -0.87133
|  7> 	N         -1.97053        0.40159        0.86975
|  8> 	N         -0.16508       -1.33810       -0.87131
|  9> 	N          1.56196        0.46215        0.86976
| 10> 	H         -0.25077        2.84339       -0.04131
| 11> 	H         -1.10621        2.40606       -1.40872
| 12> 	H          0.62256        2.44072       -1.41186
| 13> 	H         -2.61704        0.38688        0.04370
| 14> 	H         -2.20214        1.25425        1.41197
| 15> 	H         -2.17085       -0.47465        1.40945
| 16> 	H         -0.15739       -1.97967       -0.04129
| 17> 	H         -1.03127       -1.57715       -1.41151
| 18> 	H          0.69750       -1.54224       -1.40902
| 19> 	H          2.20846        0.47794        0.04372
| 20> 	H          1.76195        1.33788        1.41039
| 21> 	H          1.79391       -0.39101        1.41107
| 22> *
| 23>
| 24>
| 25>                          ****END OF INPUT****
 Total Charge           Charge          ....    2
 Multiplicity           Mult            ....    2
 Number of Electrons    NEL             ....   67
FINAL SINGLE POINT ENERGY     -1865.296314831897
FINAL SINGLE POINT ENERGY     -1865.307946401457
FINAL SINGLE POINT ENERGY     -1865.318883365136
FINAL SINGLE POINT ENERGY     -1865.323077072226
FINAL SINGLE POINT ENERGY     -1865.325447020085
FINAL SINGLE POINT ENERGY     -1865.326400624331
FINAL SINGLE POINT ENERGY     -1865.327298742959
FINAL SINGLE POINT ENERGY     -1865.327914334801
FINAL SINGLE POINT ENERGY     -1865.328409830387
FINAL SINGLE POINT ENERGY     -1865.328830427074
FINAL SINGLE POINT ENERGY     -1865.329217460514
FINAL SINGLE POINT ENERGY     -1865.329513599215
FINAL SINGLE POINT ENERGY     -1865.329660697797
FINAL SINGLE POINT ENERGY     -1865.329701469222
FINAL SINGLE POINT ENERGY     -1865.329709317066
FINAL SINGLE POINT ENERGY     -1865.329712267759
                    ***********************HURRAY********************

CARTESIAN COORDINATES (ANGSTROEM)
---------------------------------
  Cu    -0.204600    0.432180    0.000163
  N     -0.244590    2.479694   -0.323097
  N     -2.252175    0.392108    0.323182
  N     -0.164447   -1.615788   -0.323088
  N      1.843462    0.472070    0.323043
  H     -0.255661    3.041355    0.546798
  H     -1.070551    2.788457   -0.864290
  H      0.569801    2.820428   -0.862683
  H     -2.813695    0.380767   -0.546800
  H     -2.593416    1.205367    0.864109
  H     -2.560531   -0.434959    0.862960
  H     -0.151198   -2.178188    0.546296
  H     -0.978367   -1.957194   -0.862901
  H      0.661832   -1.922979   -0.864759
  H      2.405783    0.481483   -0.546439
  H      2.152498    1.298580    0.863227
  H      2.183175   -0.341681    0.864260

 Multiplicity           Mult            ....    2
 Number of Electrons    NEL             ....   67
 Basis Dimension        Dim             ....  147

ORBITAL ENERGIES
----------------
                 SPIN UP ORBITALS
  NO   OCC          E(Eh)            E(eV)
   0   1.0000    -321.956832     -8760.8908
   1   1.0000     -38.747770     -1054.3804
   2   1.0000     -34.054475      -926.6694
   3   1.0000     -34.054474      -926.6693
   4   1.0000     -34.045651      -926.4293
   5   1.0000     -14.367457      -390.9584
   6   1.0000     -14.367444      -390.9580
   7   1.0000     -14.367426      -390.9575
   8   1.0000     -14.367396      -390.9567
   9   1.0000      -4.534499      -123.3900
  10   1.0000      -3.079283       -83.7916
  11   1.0000      -3.079279       -83.7914
  12   1.0000      -3.044693       -82.8503
  13   1.0000      -1.143136       -31.1063
  14   1.0000      -1.135365       -30.8949
  15   1.0000      -1.135360       -30.8947
  16   1.0000      -1.130453       -30.7612
  17   1.0000      -0.789655       -21.4876
  18   1.0000      -0.778874       -21.1942
  19   1.0000      -0.776857       -21.1393
  20   1.0000      -0.776837       -21.1388
  21   1.0000      -0.771074       -20.9820
  22   1.0000      -0.771064       -20.9817
  23   1.0000      -0.767629       -20.8883
  24   1.0000      -0.757494       -20.6125
  25   1.0000      -0.713963       -19.4279
  26   1.0000      -0.707635       -19.2557
  27   1.0000      -0.654496       -17.8097
  28   1.0000      -0.654477       -17.8092
  29   1.0000      -0.619341       -16.8531
  30   1.0000      -0.605100       -16.4656
  31   1.0000      -0.605089       -16.4653
  32   1.0000      -0.603561       -16.4237
  33   1.0000      -0.539942       -14.6926
  34   0.0000      -0.341647        -9.2967
  35   0.0000      -0.281383        -7.6568
  36   0.0000      -0.281358        -7.6561
  37   0.0000      -0.273718        -7.4482
  38   0.0000      -0.235553        -6.4097

                 SPIN DOWN ORBITALS
  NO   OCC          E(Eh)            E(eV)
   0   1.0000    -321.956772     -8760.8892
   1   1.0000     -38.733650     -1053.9962
   2   1.0000     -34.042006      -926.3301
   3   1.0000     -34.040599      -926.2918
   4   1.0000     -34.040597      -926.2917
   5   1.0000     -14.364828      -390.8869
   6   1.0000     -14.364816      -390.8865
   7   1.0000     -14.364800      -390.8861
   8   1.0000     -14.364770      -390.8853
   9   1.0000      -4.507230      -122.6480
  10   1.0000      -3.044245       -82.8381
  11   1.0000      -3.044242       -82.8380
  12   1.0000      -3.035252       -82.5934
  13   1.0000      -1.139035       -30.9947
  14   1.0000      -1.131284       -30.7838
  15   1.0000      -1.131278       -30.7836
  16   1.0000      -1.126233       -30.6464
  17   1.0000      -0.787436       -21.4272
  18   1.0000      -0.776790       -21.1375
  19   1.0000      -0.774639       -21.0790
  20   1.0000      -0.774618       -21.0784
  21   1.0000      -0.768904       -20.9229
  22   1.0000      -0.768894       -20.9227
  23   1.0000      -0.765497       -20.8302
  24   1.0000      -0.755328       -20.5535
  25   1.0000      -0.705945       -19.2098
  26   1.0000      -0.674042       -18.3416
  27   1.0000      -0.644218       -17.5301
  28   1.0000      -0.644198       -17.5295
  29   1.0000      -0.610351       -16.6085
  30   1.0000      -0.591182       -16.0869
  31   1.0000      -0.591171       -16.0866
  32   1.0000      -0.587573       -15.9887
  33   0.0000      -0.500507       -13.6195
  34   0.0000      -0.339657        -9.2425
  35   0.0000      -0.280246        -7.6259
  36   0.0000      -0.280220        -7.6252
  37   0.0000      -0.273655        -7.4465

MULLIKEN ATOMIC CHARGES AND SPIN POPULATIONS
--------------------------------------------
   0 Cu:    0.451450    0.526070
   1 N :   -0.179701    0.120149
   2 N :   -0.179703    0.120157
   3 N :   -0.179847    0.120038
   4 N :   -0.179850    0.120046
   5 H :    0.192196   -0.001897
   6 H :    0.187426    0.000145
   7 H :    0.187317    0.000139
   8 H :    0.192194   -0.001896
   9 H :    0.187429    0.000147
  10 H :    0.187322    0.000136
  11 H :    0.192223   -0.001892
  12 H :    0.187371    0.000143
  13 H :    0.187287    0.000132
  14 H :    0.192221   -0.001891
  15 H :    0.187378    0.000140
  16 H :    0.187286    0.000133
Sum of atomic charges         :    2.0000000

LOEWDIN ATOMIC CHARGES AND SPIN POPULATIONS
-------------------------------------------
   0 Cu:    0.328264    0.542311
   1 N :    0.056478    0.109037
   2 N :    0.056480    0.109045
   3 N :    0.056351    0.108940
   4 N :    0.056353    0.108947
   5 H :    0.121850    0.000768
   6 H :    0.119859    0.002335
   7 H :    0.119833    0.002330
   8 H :    0.121846    0.000769
   9 H :    0.119863    0.002337
  10 H :    0.119832    0.002328
  11 H :    0.121855    0.000771
  12 H :    0.119829    0.002332
  13 H :    0.119813    0.002323
  14 H :    0.121851    0.000772
  15 H :    0.119830    0.002330
  16 H :    0.119814    0.002324

  Mayer bond orders larger than 0.100000
B(  0-Cu,  1-N ) :   0.5748 B(  0-Cu,  2-N ) :   0.5748 B(  0-Cu,  3-N ) :   0.5746
B(  0-Cu,  4-N ) :   0.5746 B(  1-N ,  5-H ) :   0.9507 B(  1-N ,  6-H ) :   0.9515
B(  1-N ,  7-H ) :   0.9515 B(  2-N ,  8-H ) :   0.9507 B(  2-N ,  9-H ) :   0.9515
B(  2-N , 10-H ) :   0.9515 B(  3-N , 11-H ) :   0.9507 B(  3-N , 12-H ) :   0.9515
B(  3-N , 13-H ) :   0.9515 B(  4-N , 14-H ) :   0.9507 B(  4-N , 15-H ) :   0.9515
B(  4-N , 16-H ) :   0.9515

FINAL SINGLE POINT ENERGY     -1865.329714821461

DIPOLE MOMENT
-------------

Method             : SCF
Type of density    : Electron Density
Multiplicity       :   2
Irrep              :   0
Energy             : -1865.3297148214605841 Eh
Relativity type    :
Basis              : AO
                                X                 Y                 Z
Electronic contribution:     -0.002970490       0.002886682       0.001285694
Nuclear contribution   :      0.003925232      -0.003803938      -0.001547534
                        -----------------------------------------
Total Dipole Moment    :      0.000954742      -0.000917256      -0.000261840
                        -----------------------------------------
Magnitude (a.u.)       :      0.001349611
Magnitude (Debye)      :      0.003430439

Rotational constants in cm-1:             0.099322             0.099311             0.053800
Rotational constants in MHz :          2977.589979          2977.263144          1612.894092

                             ****ORCA TERMINATED NORMALLY****
TOTAL RUN TIME: 0 days 0 hours 11 minutes 34 seconds 255 msec
