                         Program Version 6.0.0  -   RELEASE   -
|  1> # optimasi triazine
|  2> # baris kode yang diawali tagar tidak akan dieksekusi
|  3> ! PBE def2-SVP freq SP
|  4> * xyz 2 2
|  5> 	Cu        -0.50221        1.15316       -0.36208
|  6> 	N          1.07620        2.33982       -0.59676
|  7> 	N         -2.16178        0.00830       -0.14467
|  8> 	N         -1.55836        2.58953       -0.84143
|  9> 	N          0.58952       -0.40411        0.15411
| 10> 	H          1.91432        2.95410       -0.71686
| 11> 	H          0.46308        3.23002       -0.89111
| 12> 	H          1.75712        1.64031       -0.35235
| 13> 	H         -0.78972        3.22935       -0.97339
| 14> 	H         -2.09034        3.43792       -1.11851
| 15> 	H         -2.50653        2.02169       -0.74182
| 16> 	H         -3.19553       -0.68979       -0.01353
| 17> 	H         -3.13172        0.75416       -0.42132
| 18> 	H         -1.74928       -1.06569        0.18892
| 19> 	H          1.31770       -1.24077        0.44076
| 20> 	H          1.61828        0.19400        0.05117
| 21> 	H         -0.23580       -1.17882        0.32082
| 22> *
| 23>
| 24>
| 25>                          ****END OF INPUT****

CARTESIAN COORDINATES (ANGSTROEM)
---------------------------------
  Cu    -0.502210    1.153160   -0.362080
  N      1.076200    2.339820   -0.596760
  N     -2.161780    0.008300   -0.144670
  N     -1.558360    2.589530   -0.841430
  N      0.589520   -0.404110    0.154110
  H      1.914320    2.954100   -0.716860
  H      0.463080    3.230020   -0.891110
  H      1.757120    1.640310   -0.352350
  H     -0.789720    3.229350   -0.973390
  H     -2.090340    3.437920   -1.118510
  H     -2.506530    2.021690   -0.741820
  H     -3.195530   -0.689790   -0.013530
  H     -3.131720    0.754160   -0.421320
  H     -1.749280   -1.065690    0.188920
  H      1.317700   -1.240770    0.440760
  H      1.618280    0.194000    0.051170
  H     -0.235800   -1.178820    0.320820

 Total Charge           Charge          ....    2
 Multiplicity           Mult            ....    2
 Number of Electrons    NEL             ....   67
 Basis Dimension        Dim             ....  147

ORBITAL ENERGIES
----------------
                 SPIN UP ORBITALS
  NO   OCC          E(Eh)            E(eV)
   0   1.0000    -322.004091     -8762.1768
   1   1.0000     -38.795878     -1055.6895
   2   1.0000     -34.103428      -928.0015
   3   1.0000     -34.102501      -927.9762
   4   1.0000     -34.092126      -927.6939
   5   1.0000     -14.374001      -391.1365
   6   1.0000     -14.358183      -390.7060
   7   1.0000     -14.354310      -390.6006
   8   1.0000     -14.350135      -390.4870
   9   1.0000      -4.587629      -124.8357
  10   1.0000      -3.140308       -85.4521
  11   1.0000      -3.134776       -85.3016
  12   1.0000      -3.087483       -84.0147
  13   1.0000      -1.177460       -32.0403
  14   1.0000      -1.145749       -31.1774
  15   1.0000      -1.109466       -30.1901
  16   1.0000      -1.090465       -29.6731
  17   1.0000      -0.918851       -25.0032
  18   1.0000      -0.855736       -23.2858
  19   1.0000      -0.840645       -22.8751
  20   1.0000      -0.809088       -22.0164
  21   1.0000      -0.786834       -21.4108
  22   1.0000      -0.776320       -21.1247
  23   1.0000      -0.731076       -19.8936
  24   1.0000      -0.723377       -19.6841
  25   1.0000      -0.676694       -18.4138
  26   1.0000      -0.674877       -18.3643
  27   1.0000      -0.668249       -18.1840
  28   1.0000      -0.644832       -17.5468
  29   1.0000      -0.605083       -16.4651
  30   1.0000      -0.590010       -16.0550
  31   1.0000      -0.554045       -15.0763
  32   1.0000      -0.546534       -14.8719
  33   1.0000      -0.539483       -14.6801
  34   0.0000      -0.512093       -13.9348
  35   0.0000      -0.427548       -11.6342
  36   0.0000      -0.414913       -11.2904
  37   0.0000      -0.368300       -10.0220
  38   0.0000      -0.315521        -8.5858

                 SPIN DOWN ORBITALS
  NO   OCC          E(Eh)            E(eV)
   0   1.0000    -322.004019     -8762.1748
   1   1.0000     -38.780748     -1055.2778
   2   1.0000     -34.088283      -927.5893
   3   1.0000     -34.088248      -927.5884
   4   1.0000     -34.087891      -927.5787
   5   1.0000     -14.372134      -391.0857
   6   1.0000     -14.356950      -390.6725
   7   1.0000     -14.352965      -390.5640
   8   1.0000     -14.348606      -390.4454
   9   1.0000      -4.558168      -124.0341
  10   1.0000      -3.101069       -84.3844
  11   1.0000      -3.098276       -84.3084
  12   1.0000      -3.077486       -83.7427
  13   1.0000      -1.174316       -31.9548
  14   1.0000      -1.142383       -31.0858
  15   1.0000      -1.106468       -30.1085
  16   1.0000      -1.086947       -29.5773
  17   1.0000      -0.917074       -24.9549
  18   1.0000      -0.853461       -23.2239
  19   1.0000      -0.838680       -22.8217
  20   1.0000      -0.800976       -21.7957
  21   1.0000      -0.774540       -21.0763
  22   1.0000      -0.760851       -20.7038
  23   1.0000      -0.723963       -19.7000
  24   1.0000      -0.714209       -19.4346
  25   1.0000      -0.665163       -18.1000
  26   1.0000      -0.663851       -18.0643
  27   1.0000      -0.654241       -17.8028
  28   1.0000      -0.627417       -17.0729
  29   1.0000      -0.587864       -15.9966
  30   1.0000      -0.551036       -14.9945
  31   1.0000      -0.542718       -14.7681
  32   1.0000      -0.536668       -14.6035
  33   0.0000      -0.561812       -15.2877
  34   0.0000      -0.510527       -13.8922
  35   0.0000      -0.425984       -11.5916
  36   0.0000      -0.413267       -11.2456
  37   0.0000      -0.360966        -9.8224

MULLIKEN ATOMIC CHARGES AND SPIN POPULATIONS
--------------------------------------------
   0 Cu:    0.527046    0.577555
   1 N :   -0.303343    0.050957
   2 N :   -0.523398    0.059400
   3 N :   -0.274333    0.050874
   4 N :   -0.443186    0.047409
   5 H :    0.214593    0.043539
   6 H :    0.254038    0.001982
   7 H :    0.188160    0.001507
   8 H :    0.176459    0.002802
   9 H :    0.214427    0.043728
  10 H :    0.251662    0.001303
  11 H :    0.290364    0.073212
  12 H :    0.307726   -0.003536
  13 H :    0.293190   -0.002441
  14 H :    0.257132    0.049661
  15 H :    0.302561    0.002339
  16 H :    0.266901   -0.000292
Sum of atomic charges         :    2.0000000

LOEWDIN ATOMIC CHARGES AND SPIN POPULATIONS
-------------------------------------------
   0 Cu:    0.438479    0.583165
   1 N :   -0.168057    0.058227
   2 N :   -0.359442    0.068465
   3 N :   -0.142603    0.057214
   4 N :   -0.287307    0.052974
   5 H :    0.184509    0.031957
   6 H :    0.208103    0.003765
   7 H :    0.137104    0.003775
   8 H :    0.132881    0.005078
   9 H :    0.186746    0.031910
  10 H :    0.201826    0.002685
  11 H :    0.273282    0.058595
  12 H :    0.264017   -0.001435
  13 H :    0.239863   -0.000618
  14 H :    0.221585    0.039040
  15 H :    0.256087    0.003877
  16 H :    0.212928    0.001325

  Mayer bond orders larger than 0.100000
B(  0-Cu,  1-N ) :   0.4702 B(  0-Cu,  2-N ) :   0.4929 B(  0-Cu,  3-N ) :   0.5700
B(  0-Cu,  4-N ) :   0.5404 B(  1-N ,  5-H ) :   0.8083 B(  1-N ,  6-H ) :   0.7859
B(  1-N ,  7-H ) :   0.8230 B(  2-N , 11-H ) :   0.6962 B(  2-N , 12-H ) :   0.7134
B(  2-N , 13-H ) :   0.7309 B(  3-N ,  8-H ) :   0.7871 B(  3-N ,  9-H ) :   0.8042
B(  3-N , 10-H ) :   0.7531 B(  4-N , 14-H ) :   0.7851 B(  4-N , 15-H ) :   0.7294
B(  4-N , 16-H ) :   0.7707

FINAL SINGLE POINT ENERGY     -1864.650363450851

DIPOLE MOMENT
-------------

Method             : SCF
Type of density    : Electron Density
Multiplicity       :   2
Irrep              :   0
Energy             : -1864.6503634508508185 Eh
Relativity type    :
Basis              : AO
                                X                 Y                 Z
Electronic contribution:      0.104691966       0.102992096      -0.022726024
Nuclear contribution   :     -0.507339430      -0.440817136       0.092398059
                        -----------------------------------------
Total Dipole Moment    :     -0.402647464      -0.337825040       0.069672035
                        -----------------------------------------
Magnitude (a.u.)       :      0.530193295
Magnitude (Debye)      :      1.347644257

VIBRATIONAL FREQUENCIES
-----------------------

Scaling factor for frequencies =  1.000000000  (already applied!)

     0:       0.00 cm**-1
     1:       0.00 cm**-1
     2:       0.00 cm**-1
     3:       0.00 cm**-1
     4:       0.00 cm**-1
     5:       0.00 cm**-1
     6:   -2576.73 cm**-1 ***imaginary mode***
     7:   -1964.77 cm**-1 ***imaginary mode***
     8:   -1817.81 cm**-1 ***imaginary mode***
     9:   -1395.97 cm**-1 ***imaginary mode***
    10:    -866.51 cm**-1 ***imaginary mode***
    11:    -731.98 cm**-1 ***imaginary mode***
    12:    -666.05 cm**-1 ***imaginary mode***
    13:    -561.29 cm**-1 ***imaginary mode***
    14:    -359.20 cm**-1 ***imaginary mode***
    15:     -76.50 cm**-1 ***imaginary mode***
    16:     182.28 cm**-1
    17:     186.33 cm**-1
    18:     263.98 cm**-1
    19:     292.34 cm**-1
    20:     355.40 cm**-1
    21:     396.30 cm**-1
    22:     449.45 cm**-1
    23:     477.68 cm**-1
    24:     481.01 cm**-1
    25:     550.14 cm**-1
    26:     591.11 cm**-1
    27:     868.27 cm**-1
    28:     882.29 cm**-1
    29:     959.42 cm**-1
    30:     965.36 cm**-1
    31:     986.75 cm**-1
    32:    1044.13 cm**-1
    33:    1070.87 cm**-1
    34:    1296.32 cm**-1
    35:    1401.70 cm**-1
    36:    1429.81 cm**-1
    37:    1549.99 cm**-1
    38:    1578.82 cm**-1
    39:    1678.30 cm**-1
    40:    1711.77 cm**-1
    41:    1908.01 cm**-1
    42:    2001.95 cm**-1
    43:    2343.73 cm**-1
    44:    2433.88 cm**-1
    45:    2547.53 cm**-1
    46:    2623.95 cm**-1
    47:    3254.11 cm**-1
    48:    3324.70 cm**-1
    49:    3755.75 cm**-1
    50:    3800.42 cm**-1

IR SPECTRUM
-----------

 Mode   freq       eps      Int      T**2         TX        TY        TZ
       cm**-1   L/(mol*cm) km/mol    a.u.
----------------------------------------------------------------------------
 16:    182.28   0.000621    3.14  0.001063  (-0.021982 -0.022906  0.007452)
 17:    186.33   0.014330   72.42  0.024000  (-0.008682  0.043461  0.148446)
 18:    263.98   0.005335   26.96  0.006307  (-0.040801  0.064835 -0.020942)
 19:    292.34   0.007823   39.54  0.008351  (-0.036706 -0.080985  0.021097)
 20:    355.40   0.006191   31.29  0.005436  ( 0.014165  0.069782 -0.019138)
 21:    396.30   0.014973   75.67  0.011790  (-0.025753  0.100942 -0.030621)
 22:    449.45   0.067538  341.31  0.046893  ( 0.074215  0.196919 -0.051067)
 23:    477.68   0.000316    1.60  0.000206  ( 0.003834 -0.003888 -0.013289)
 24:    481.01   0.027926  141.13  0.018118  ( 0.133921  0.012443  0.005283)
 25:    550.14   0.059342  299.89  0.033661  (-0.136128  0.115595 -0.042049)
 26:    591.11   0.067743  342.35  0.035763  (-0.181558  0.046648 -0.024983)
 27:    868.27   0.001724    8.71  0.000620  ( 0.001555 -0.006825 -0.023891)
 28:    882.29   0.034159  172.63  0.012082  (-0.036123 -0.100515  0.025957)
 29:    959.42   0.007668   38.75  0.002494  ( 0.048060 -0.012709  0.004755)
 30:    965.36   0.023176  117.12  0.007492  ( 0.004425 -0.022743 -0.083397)
 31:    986.75   0.021349  107.89  0.006752  (-0.068762 -0.044258  0.008050)
 32:   1044.13   0.005350   27.04  0.001599  (-0.012101  0.036532 -0.010859)
 33:   1070.87   0.031794  160.67  0.009265  ( 0.006710 -0.025835 -0.092480)
 34:   1296.32   0.037027  187.12  0.008914  ( 0.030352 -0.085410  0.026410)
 35:   1401.70   0.006849   34.61  0.001525  ( 0.003239 -0.010357 -0.037510)
 36:   1429.81   0.014445   73.00  0.003153  (-0.055511  0.006515 -0.005376)
 37:   1549.99   0.031505  159.21  0.006343  (-0.048442  0.059871 -0.020293)
 38:   1578.82   0.056874  287.42  0.011242  ( 0.091554  0.052707 -0.009018)
 39:   1678.30   0.001471    7.44  0.000274  ( 0.014537  0.007788 -0.001261)
 40:   1711.77   0.032372  163.59  0.005901  ( 0.000776  0.073888 -0.021009)
 41:   1908.01   0.012990   65.65  0.002125  (-0.010653 -0.043302  0.011664)
 42:   2001.95   0.034411  173.90  0.005364  (-0.040507  0.057920 -0.019191)
 43:   2343.73   0.028455  143.80  0.003789  ( 0.054681 -0.026009  0.011058)
 44:   2433.88   0.036757  185.76  0.004713  (-0.041527 -0.053233  0.012438)
 45:   2547.53   0.024088  121.73  0.002951  ( 0.051322 -0.015924  0.007954)
 46:   2623.95   0.032544  164.46  0.003870  (-0.026367 -0.054619  0.013853)
 47:   3254.11   0.039168  197.94  0.003756  ( 0.043493  0.042190 -0.009196)
 48:   3324.70   0.040087  202.58  0.003763  (-0.040330  0.043676 -0.015117)
 49:   3755.75   0.046387  234.42  0.003854  ( 0.060857  0.012265  0.000490)
 50:   3800.42   0.030652  154.90  0.002517  (-0.010523  0.046981 -0.014105)

--------------------------
THERMOCHEMISTRY AT 298.15K
--------------------------

Temperature         ...   298.15 K
Pressure            ...     1.00 atm
Total Mass          ...   131.67 AMU
Quasi RRHO          ...     True
Cut-Off Frequency   ...     1.00 cm^-1

Throughout the following assumptions are being made:
  (1) The electronic state is orbitally nondegenerate
      but the spin degeneracy is treated
  (2) There are no thermally accessible electronically excited states
  (3) Hindered rotations indicated by low frequency modes are not
      treated as such but are treated as vibrations and this may
      cause some error
  (4) All equations used are the standard statistical mechanics
      equations for an ideal gas
  (5) All vibrations are strictly harmonic

freq.     182.28  E(vib)   ...       0.37
freq.     186.33  E(vib)   ...       0.37
freq.     263.98  E(vib)   ...       0.29
freq.     292.34  E(vib)   ...       0.27
freq.     355.40  E(vib)   ...       0.22
freq.     396.30  E(vib)   ...       0.20
freq.     449.45  E(vib)   ...       0.17
freq.     477.68  E(vib)   ...       0.15
freq.     481.01  E(vib)   ...       0.15
freq.     550.14  E(vib)   ...       0.12
freq.     591.11  E(vib)   ...       0.10
freq.     868.27  E(vib)   ...       0.04
freq.     882.29  E(vib)   ...       0.04
freq.     959.42  E(vib)   ...       0.03
freq.     965.36  E(vib)   ...       0.03
freq.     986.75  E(vib)   ...       0.02
freq.    1044.13  E(vib)   ...       0.02
freq.    1070.87  E(vib)   ...       0.02
freq.    1296.32  E(vib)   ...       0.01
freq.    1401.70  E(vib)   ...       0.00
freq.    1429.81  E(vib)   ...       0.00
freq.    1549.99  E(vib)   ...       0.00
freq.    1578.82  E(vib)   ...       0.00
freq.    1678.30  E(vib)   ...       0.00
freq.    1711.77  E(vib)   ...       0.00
freq.    1908.01  E(vib)   ...       0.00
freq.    2001.95  E(vib)   ...       0.00
freq.    2343.73  E(vib)   ...       0.00
freq.    2433.88  E(vib)   ...       0.00
freq.    2547.53  E(vib)   ...       0.00
freq.    2623.95  E(vib)   ...       0.00
freq.    3254.11  E(vib)   ...       0.00
freq.    3324.70  E(vib)   ...       0.00
freq.    3755.75  E(vib)   ...       0.00
freq.    3800.42  E(vib)   ...       0.00

------------
INNER ENERGY
------------

The inner energy is: U= E(el) + E(ZPE) + E(vib) + E(rot) + E(trans)
    E(el)   - is the total energy from the electronic structure calculation
              = E(kin-el) + E(nuc-el) + E(el-el) + E(nuc-nuc)
    E(ZPE)  - the the zero temperature vibrational energy from the frequency calculation
    E(vib)  - the the finite temperature correction to E(ZPE) due to population
              of excited vibrational states
    E(rot)  - is the rotational thermal energy
    E(trans)- is the translational thermal energy

Summary of contributions to the inner energy U:
Electronic energy                ...  -1864.65036345 Eh
Zero point energy                ...      0.11309704 Eh      70.97 kcal/mol
Thermal vibrational correction   ...      0.00417593 Eh       2.62 kcal/mol
Thermal rotational correction    ...      0.00141627 Eh       0.89 kcal/mol
Thermal translational correction ...      0.00141627 Eh       0.89 kcal/mol
-----------------------------------------------------------------------
Total thermal energy                  -1864.53025794 Eh

Summary of corrections to the electronic energy:
(perhaps to be used in another calculation)
Total thermal correction                  0.00700847 Eh       4.40 kcal/mol
Non-thermal (ZPE) correction              0.11309704 Eh      70.97 kcal/mol
-----------------------------------------------------------------------
Total correction                          0.12010551 Eh      75.37 kcal/mol

--------
ENTHALPY
--------

The enthalpy is H = U + kB*T
                kB is Boltzmann's constant
Total thermal energy              ...  -1864.53025794 Eh
Thermal Enthalpy correction       ...      0.00094421 Eh       0.59 kcal/mol
-----------------------------------------------------------------------
Total Enthalpy                    ...  -1864.52931373 Eh

Note: Rotational entropy computed according to Herzberg
Infrared and Raman Spectra, Chapter V,1, Van Nostrand Reinhold, 1945
Point Group:  Cs, Symmetry Number:   1
Rotational constants in cm-1:     0.119591     0.106184     0.056245

Vibrational entropy computed according to the QRRHO of S. Grimme
Chem.Eur.J. 2012 18 9955 using a reference frequency of 100.0 cm-1

-------
ENTROPY
-------

The entropy contributions are T*S = T*(S(el)+S(vib)+S(rot)+S(trans))
     S(el)   - electronic entropy
     S(vib)  - vibrational entropy
     S(rot)  - rotational entropy
     S(trans)- translational entropy
The entropies will be listed as multiplied by the temperature to get
units of energy

Electronic entropy                ...      0.00065446 Eh      0.41 kcal/mol
Vibrational entropy               ...      0.00660153 Eh      4.14 kcal/mol
Rotational entropy                ...      0.01293078 Eh      8.11 kcal/mol
Translational entropy             ...      0.01926094 Eh     12.09 kcal/mol
-----------------------------------------------------------------------
Final entropy term                ...      0.03944770 Eh     24.75 kcal/mol

In case the symmetry of your molecule has not been determined correctly
or in case you have a reason to use a different symmetry number we print
out the resulting rotational entropy values for sn=1,12:

 non-linear molecules -----------------------------------
|  sn= 1 | S(rot)=       0.01293078 Eh      8.11 kcal/mol|
|  sn= 2 | S(rot)=       0.01227632 Eh      7.70 kcal/mol|
|  sn= 3 | S(rot)=       0.01189349 Eh      7.46 kcal/mol|
|  sn= 4 | S(rot)=       0.01162186 Eh      7.29 kcal/mol|
|  sn= 5 | S(rot)=       0.01141117 Eh      7.16 kcal/mol|
|  sn= 6 | S(rot)=       0.01123903 Eh      7.05 kcal/mol|
|  sn= 7 | S(rot)=       0.01109348 Eh      6.96 kcal/mol|
|  sn= 8 | S(rot)=       0.01096741 Eh      6.88 kcal/mol|
|  sn= 9 | S(rot)=       0.01085620 Eh      6.81 kcal/mol|
|  sn=10 | S(rot)=       0.01075672 Eh      6.75 kcal/mol|
|  sn=11 | S(rot)=       0.01066673 Eh      6.69 kcal/mol|
|  sn=12 | S(rot)=       0.01058457 Eh      6.64 kcal/mol|
 linear molecules ---------------------------------------
|  Dinfh | S(rot)=       0.00804320 Eh      5.05 kcal/mol|
|  Cinfv | S(rot)=       0.00869766 Eh      5.46 kcal/mol|
 --------------------------------------------------------

-------------------
GIBBS FREE ENERGY
-------------------

The Gibbs free energy is G = H - T*S

Total enthalpy                    ...  -1864.52931373 Eh
Total entropy correction          ...     -0.03944770 Eh    -24.75 kcal/mol
-----------------------------------------------------------------------
Final Gibbs free energy         ...  -1864.56876143 Eh

                             ****ORCA TERMINATED NORMALLY****
TOTAL RUN TIME: 0 days 0 hours 11 minutes 6 seconds 873 msec
