                         Program Version 6.0.0  -   RELEASE   -
|  1> # optimasi triazine
|  2> # baris kode yang diawali tagar tidak akan dieksekusi
|  3> ! PBE def2-SVP freq SP
|  4> * xyz 2 2
|  5>   Cu         -0.20460008005441      0.43218027400908      0.00016292782573
|  6>   N          -0.24458974571855      2.47969359585069     -0.32309708191488
|  7>   N          -2.25217544941240      0.39210769314343      0.32318159791095
|  8>   N          -0.16444666455911     -1.61578800459621     -0.32308826445427
|  9>   N           1.84346168607796      0.47206966873791      0.32304288919787
| 10>   H          -0.25566092006678      3.04135531480934      0.54679824452548
| 11>   H          -1.07055063962565      2.78845725171347     -0.86429022115993
| 12>   H           0.56980116090773      2.82042787265361     -0.86268316876183
| 13>   H          -2.81369547217601      0.38076690527887     -0.54680043414375
| 14>   H          -2.59341594695398      1.20536713532680      0.86410896498554
| 15>   H          -2.56053055723227     -0.43495865531866      0.86296020598164
| 16>   H          -0.15119799529436     -2.17818794223373      0.54629594489315
| 17>   H          -0.97836694234652     -1.95719437539440     -0.86290125651054
| 18>   H           0.66183170394423     -1.92297918588761     -0.86475888330735
| 19>   H           2.40578318438072      0.48148261847811     -0.54643890740706
| 20>   H           2.15249777822645      1.29858033629233      0.86322708265146
| 21>   H           2.18317489990293     -0.34168050286303      0.86426035968779
| 22> *
| 23>
| 24>
| 25>                          ****END OF INPUT****

CARTESIAN COORDINATES (ANGSTROEM)
---------------------------------
  Cu    -0.204600    0.432180    0.000163
  N     -0.244590    2.479694   -0.323097
  N     -2.252175    0.392108    0.323182
  N     -0.164447   -1.615788   -0.323088
  N      1.843462    0.472070    0.323043
  H     -0.255661    3.041355    0.546798
  H     -1.070551    2.788457   -0.864290
  H      0.569801    2.820428   -0.862683
  H     -2.813695    0.380767   -0.546800
  H     -2.593416    1.205367    0.864109
  H     -2.560531   -0.434959    0.862960
  H     -0.151198   -2.178188    0.546296
  H     -0.978367   -1.957194   -0.862901
  H      0.661832   -1.922979   -0.864759
  H      2.405783    0.481483   -0.546439
  H      2.152498    1.298580    0.863227
  H      2.183175   -0.341681    0.864260

 Total Charge           Charge          ....    2
 Multiplicity           Mult            ....    2
 Number of Electrons    NEL             ....   67
 Basis Dimension        Dim             ....  147

ORBITAL ENERGIES
----------------
                 SPIN UP ORBITALS
  NO   OCC          E(Eh)            E(eV)
   0   1.0000    -321.956847     -8760.8912
   1   1.0000     -38.747782     -1054.3808
   2   1.0000     -34.054489      -926.6697
   3   1.0000     -34.054487      -926.6697
   4   1.0000     -34.045665      -926.4296
   5   1.0000     -14.367488      -390.9592
   6   1.0000     -14.367482      -390.9591
   7   1.0000     -14.367481      -390.9590
   8   1.0000     -14.367446      -390.9581
   9   1.0000      -4.534495      -123.3899
  10   1.0000      -3.079277       -83.7914
  11   1.0000      -3.079273       -83.7913
  12   1.0000      -3.044691       -82.8503
  13   1.0000      -1.143151       -31.1067
  14   1.0000      -1.135380       -30.8953
  15   1.0000      -1.135377       -30.8952
  16   1.0000      -1.130470       -30.7616
  17   1.0000      -0.789668       -21.4879
  18   1.0000      -0.778887       -21.1946
  19   1.0000      -0.776870       -21.1397
  20   1.0000      -0.776849       -21.1391
  21   1.0000      -0.771087       -20.9823
  22   1.0000      -0.771077       -20.9821
  23   1.0000      -0.767643       -20.8886
  24   1.0000      -0.757508       -20.6128
  25   1.0000      -0.713970       -19.4281
  26   1.0000      -0.707635       -19.2557
  27   1.0000      -0.654505       -17.8100
  28   1.0000      -0.654488       -17.8095
  29   1.0000      -0.619335       -16.8529
  30   1.0000      -0.605097       -16.4655
  31   1.0000      -0.605086       -16.4652
  32   1.0000      -0.603557       -16.4236
  33   1.0000      -0.539948       -14.6927
  34   0.0000      -0.341649        -9.2967
  35   0.0000      -0.281389        -7.6570
  36   0.0000      -0.281363        -7.6563
  37   0.0000      -0.273713        -7.4481
  38   0.0000      -0.235555        -6.4098

                 SPIN DOWN ORBITALS
  NO   OCC          E(Eh)            E(eV)
   0   1.0000    -321.956787     -8760.8896
   1   1.0000     -38.733664     -1053.9966
   2   1.0000     -34.042021      -926.3305
   3   1.0000     -34.040613      -926.2922
   4   1.0000     -34.040611      -926.2921
   5   1.0000     -14.364860      -390.8877
   6   1.0000     -14.364855      -390.8876
   7   1.0000     -14.364854      -390.8876
   8   1.0000     -14.364819      -390.8866
   9   1.0000      -4.507228      -122.6479
  10   1.0000      -3.044241       -82.8380
  11   1.0000      -3.044238       -82.8379
  12   1.0000      -3.035251       -82.5934
  13   1.0000      -1.139050       -30.9951
  14   1.0000      -1.131299       -30.7842
  15   1.0000      -1.131296       -30.7841
  16   1.0000      -1.126250       -30.6468
  17   1.0000      -0.787448       -21.4276
  18   1.0000      -0.776802       -21.1379
  19   1.0000      -0.774652       -21.0793
  20   1.0000      -0.774631       -21.0788
  21   1.0000      -0.768917       -20.9233
  22   1.0000      -0.768907       -20.9230
  23   1.0000      -0.765510       -20.8306
  24   1.0000      -0.755342       -20.5539
  25   1.0000      -0.705953       -19.2099
  26   1.0000      -0.674047       -18.3417
  27   1.0000      -0.644226       -17.5303
  28   1.0000      -0.644209       -17.5298
  29   1.0000      -0.610345       -16.6083
  30   1.0000      -0.591180       -16.0868
  31   1.0000      -0.591168       -16.0865
  32   1.0000      -0.587569       -15.9886
  33   0.0000      -0.500512       -13.6196
  34   0.0000      -0.339659        -9.2426
  35   0.0000      -0.280251        -7.6260
  36   0.0000      -0.280226        -7.6253
  37   0.0000      -0.273650        -7.4464

MULLIKEN ATOMIC CHARGES AND SPIN POPULATIONS
--------------------------------------------
   0 Cu:    0.451462    0.526066
   1 N :   -0.179694    0.120149
   2 N :   -0.179696    0.120157
   3 N :   -0.179844    0.120038
   4 N :   -0.179849    0.120045
   5 H :    0.192193   -0.001896
   6 H :    0.187424    0.000145
   7 H :    0.187314    0.000140
   8 H :    0.192191   -0.001896
   9 H :    0.187427    0.000148
  10 H :    0.187319    0.000137
  11 H :    0.192220   -0.001891
  12 H :    0.187369    0.000144
  13 H :    0.187285    0.000132
  14 H :    0.192219   -0.001891
  15 H :    0.187376    0.000140
  16 H :    0.187284    0.000134
Sum of atomic charges         :    2.0000000

LOEWDIN ATOMIC CHARGES AND SPIN POPULATIONS
-------------------------------------------
   0 Cu:    0.328269    0.542306
   1 N :    0.056482    0.109038
   2 N :    0.056484    0.109046
   3 N :    0.056352    0.108940
   4 N :    0.056353    0.108947
   5 H :    0.121848    0.000769
   6 H :    0.119857    0.002335
   7 H :    0.119832    0.002331
   8 H :    0.121844    0.000769
   9 H :    0.119862    0.002337
  10 H :    0.119831    0.002328
  11 H :    0.121853    0.000772
  12 H :    0.119828    0.002333
  13 H :    0.119812    0.002323
  14 H :    0.121850    0.000772
  15 H :    0.119829    0.002330
  16 H :    0.119814    0.002325

  Mayer bond orders larger than 0.100000
B(  0-Cu,  1-N ) :   0.5748 B(  0-Cu,  2-N ) :   0.5748 B(  0-Cu,  3-N ) :   0.5746
B(  0-Cu,  4-N ) :   0.5745 B(  1-N ,  5-H ) :   0.9507 B(  1-N ,  6-H ) :   0.9515
B(  1-N ,  7-H ) :   0.9515 B(  2-N ,  8-H ) :   0.9507 B(  2-N ,  9-H ) :   0.9515
B(  2-N , 10-H ) :   0.9515 B(  3-N , 11-H ) :   0.9507 B(  3-N , 12-H ) :   0.9515
B(  3-N , 13-H ) :   0.9515 B(  4-N , 14-H ) :   0.9507 B(  4-N , 15-H ) :   0.9515
B(  4-N , 16-H ) :   0.9515

FINAL SINGLE POINT ENERGY     -1865.329714849661

DIPOLE MOMENT
-------------

Method             : SCF
Type of density    : Electron Density
Multiplicity       :   2
Irrep              :   0
Energy             : -1865.3297148496608315 Eh
Relativity type    :
Basis              : AO
                                X                 Y                 Z
Electronic contribution:     -0.002976336       0.002891093       0.001287374
Nuclear contribution   :      0.003925232      -0.003803938      -0.001547534
                        -----------------------------------------
Total Dipole Moment    :      0.000948896      -0.000912844      -0.000260161
                        -----------------------------------------
Magnitude (a.u.)       :      0.001342152
Magnitude (Debye)      :      0.003411479

VIBRATIONAL FREQUENCIES
-----------------------

Scaling factor for frequencies =  1.000000000  (already applied!)

     0:       0.00 cm**-1
     1:       0.00 cm**-1
     2:       0.00 cm**-1
     3:       0.00 cm**-1
     4:       0.00 cm**-1
     5:       0.00 cm**-1
     6:      51.05 cm**-1
     7:      76.07 cm**-1
     8:     103.02 cm**-1
     9:     103.23 cm**-1
    10:     118.12 cm**-1
    11:     154.83 cm**-1
    12:     190.17 cm**-1
    13:     190.24 cm**-1
    14:     211.54 cm**-1
    15:     276.11 cm**-1
    16:     372.29 cm**-1
    17:     388.68 cm**-1
    18:     388.71 cm**-1
    19:     565.05 cm**-1
    20:     593.65 cm**-1
    21:     597.75 cm**-1
    22:     597.81 cm**-1
    23:     654.74 cm**-1
    24:     654.82 cm**-1
    25:     678.63 cm**-1
    26:     683.96 cm**-1
    27:    1243.28 cm**-1
    28:    1253.23 cm**-1
    29:    1253.26 cm**-1
    30:    1286.92 cm**-1
    31:    1572.38 cm**-1
    32:    1572.83 cm**-1
    33:    1572.95 cm**-1
    34:    1575.74 cm**-1
    35:    1585.95 cm**-1
    36:    1593.09 cm**-1
    37:    1593.18 cm**-1
    38:    1600.86 cm**-1
    39:    3341.45 cm**-1
    40:    3341.92 cm**-1
    41:    3341.93 cm**-1
    42:    3348.12 cm**-1
    43:    3438.25 cm**-1
    44:    3438.81 cm**-1
    45:    3438.84 cm**-1
    46:    3440.24 cm**-1
    47:    3442.80 cm**-1
    48:    3443.46 cm**-1
    49:    3443.53 cm**-1
    50:    3443.58 cm**-1

IR SPECTRUM
-----------

 Mode   freq       eps      Int      T**2         TX        TY        TZ
       cm**-1   L/(mol*cm) km/mol    a.u.
----------------------------------------------------------------------------
  6:     51.05   0.000000    0.00  0.000000  (-0.000008 -0.000000 -0.000008)
  7:     76.07   0.000000    0.00  0.000000  ( 0.000063  0.000041  0.000311)
  8:    103.02   0.000342    1.73  0.001035  (-0.023690  0.021770  0.000002)
  9:    103.23   0.000346    1.75  0.001044  ( 0.021892  0.023773 -0.000034)
 10:    118.12   0.000000    0.00  0.000001  ( 0.000042 -0.000109 -0.001114)
 11:    154.83   0.005060   25.57  0.010198  (-0.000104 -0.000110  0.100983)
 12:    190.17   0.001563    7.90  0.002565  (-0.033563  0.037922  0.000008)
 13:    190.24   0.001560    7.88  0.002559  ( 0.037881  0.033530  0.000094)
 14:    211.54   0.000000    0.00  0.000000  ( 0.000023 -0.000030  0.000260)
 15:    276.11   0.000006    0.03  0.000007  (-0.000071 -0.000074 -0.002693)
 16:    372.29   0.000000    0.00  0.000000  ( 0.000058 -0.000055 -0.000003)
 17:    388.68   0.000055    0.28  0.000044  (-0.006145 -0.002572 -0.000000)
 18:    388.71   0.000055    0.28  0.000044  ( 0.002569 -0.006143 -0.000001)
 19:    565.05   0.000000    0.00  0.000000  ( 0.000084  0.000094  0.000081)
 20:    593.65   0.000001    0.00  0.000000  (-0.000451  0.000425  0.000002)
 21:    597.75   0.000411    2.08  0.000215  (-0.010241 -0.010475  0.000056)
 22:    597.81   0.000401    2.03  0.000209  (-0.010359  0.010106 -0.000005)
 23:    654.74   0.011502   58.12  0.005482  (-0.046357  0.057732 -0.000121)
 24:    654.82   0.011504   58.14  0.005483  ( 0.057727  0.046360 -0.000992)
 25:    678.63   0.026513  133.99  0.012192  ( 0.000401  0.000415  0.110416)
 26:    683.96   0.000042    0.21  0.000019  (-0.000057  0.000038 -0.004373)
 27:   1243.28   0.001490    7.53  0.000374  ( 0.000028  0.000013  0.019341)
 28:   1253.23   0.017354   87.70  0.004321  ( 0.060391  0.025965  0.000047)
 29:   1253.26   0.017377   87.82  0.004327  (-0.026022  0.060414  0.000023)
 30:   1286.92   0.000000    0.00  0.000000  (-0.000063  0.000065  0.000016)
 31:   1572.38   0.000428    2.16  0.000085  (-0.006613  0.006364  0.000801)
 32:   1572.83   0.007344   37.11  0.001457  ( 0.024994  0.028491 -0.004550)
 33:   1572.95   0.006779   34.26  0.001345  ( 0.027648 -0.024094  0.000007)
 34:   1575.74   0.026690  134.88  0.005286  (-0.001490 -0.001562 -0.072671)
 35:   1585.95   0.000008    0.04  0.000002  ( 0.000770  0.000804 -0.000556)
 36:   1593.09   0.004583   23.16  0.000898  ( 0.020713 -0.021649 -0.000018)
 37:   1593.18   0.004552   23.00  0.000892  ( 0.021582  0.020633  0.000363)
 38:   1600.86   0.000004    0.02  0.000001  (-0.000662  0.000629  0.000011)
 39:   3341.45   0.000443    2.24  0.000041  ( 0.000427  0.000324 -0.006411)
 40:   3341.92   0.030733  155.31  0.002870  ( 0.027745  0.045825  0.000069)
 41:   3341.93   0.030804  155.67  0.002876  (-0.045865  0.027801 -0.000027)
 42:   3348.12   0.000000    0.00  0.000000  ( 0.000075 -0.000060  0.000001)
 43:   3438.25   0.000045    0.23  0.000004  (-0.001450  0.001362  0.000318)
 44:   3438.81   0.000007    0.03  0.000001  ( 0.000062 -0.000059  0.000770)
 45:   3438.84   0.000092    0.46  0.000008  (-0.000026 -0.000192 -0.002878)
 46:   3440.24   0.066078  333.93  0.005994  ( 0.002270  0.002358 -0.077351)
 47:   3442.80   0.000002    0.01  0.000000  (-0.000007  0.000015 -0.000377)
 48:   3443.46   0.009398   47.49  0.000852  (-0.019696 -0.021222 -0.003656)
 49:   3443.53   0.025290  127.81  0.002292  (-0.035445  0.032180 -0.000168)
 50:   3443.58   0.016231   82.03  0.001471  ( 0.025464  0.028411  0.003908)

--------------------------
THERMOCHEMISTRY AT 298.15K
--------------------------

Temperature         ...   298.15 K
Pressure            ...     1.00 atm
Total Mass          ...   131.67 AMU
Quasi RRHO          ...     True
Cut-Off Frequency   ...     1.00 cm^-1

Throughout the following assumptions are being made:
  (1) The electronic state is orbitally nondegenerate
      but the spin degeneracy is treated
  (2) There are no thermally accessible electronically excited states
  (3) Hindered rotations indicated by low frequency modes are not
      treated as such but are treated as vibrations and this may
      cause some error
  (4) All equations used are the standard statistical mechanics
      equations for an ideal gas
  (5) All vibrations are strictly harmonic

freq.      51.05  E(vib)   ...       0.52
freq.      76.07  E(vib)   ...       0.49
freq.     103.02  E(vib)   ...       0.46
freq.     103.23  E(vib)   ...       0.46
freq.     118.12  E(vib)   ...       0.44
freq.     154.83  E(vib)   ...       0.40
freq.     190.17  E(vib)   ...       0.36
freq.     190.24  E(vib)   ...       0.36
freq.     211.54  E(vib)   ...       0.34
freq.     276.11  E(vib)   ...       0.28
freq.     372.29  E(vib)   ...       0.21
freq.     388.68  E(vib)   ...       0.20
freq.     388.71  E(vib)   ...       0.20
freq.     565.05  E(vib)   ...       0.11
freq.     593.65  E(vib)   ...       0.10
freq.     597.75  E(vib)   ...       0.10
freq.     597.81  E(vib)   ...       0.10
freq.     654.74  E(vib)   ...       0.08
freq.     654.82  E(vib)   ...       0.08
freq.     678.63  E(vib)   ...       0.08
freq.     683.96  E(vib)   ...       0.07
freq.    1243.28  E(vib)   ...       0.01
freq.    1253.23  E(vib)   ...       0.01
freq.    1253.26  E(vib)   ...       0.01
freq.    1286.92  E(vib)   ...       0.01
freq.    1572.38  E(vib)   ...       0.00
freq.    1572.83  E(vib)   ...       0.00
freq.    1572.95  E(vib)   ...       0.00
freq.    1575.74  E(vib)   ...       0.00
freq.    1585.95  E(vib)   ...       0.00
freq.    1593.09  E(vib)   ...       0.00
freq.    1593.18  E(vib)   ...       0.00
freq.    1600.86  E(vib)   ...       0.00
freq.    3341.45  E(vib)   ...       0.00
freq.    3341.92  E(vib)   ...       0.00
freq.    3341.93  E(vib)   ...       0.00
freq.    3348.12  E(vib)   ...       0.00
freq.    3438.25  E(vib)   ...       0.00
freq.    3438.81  E(vib)   ...       0.00
freq.    3438.84  E(vib)   ...       0.00
freq.    3440.24  E(vib)   ...       0.00
freq.    3442.80  E(vib)   ...       0.00
freq.    3443.46  E(vib)   ...       0.00
freq.    3443.53  E(vib)   ...       0.00
freq.    3443.58  E(vib)   ...       0.00

------------
INNER ENERGY
------------

The inner energy is: U= E(el) + E(ZPE) + E(vib) + E(rot) + E(trans)
    E(el)   - is the total energy from the electronic structure calculation
              = E(kin-el) + E(nuc-el) + E(el-el) + E(nuc-nuc)
    E(ZPE)  - the the zero temperature vibrational energy from the frequency calculation
    E(vib)  - the the finite temperature correction to E(ZPE) due to population
              of excited vibrational states
    E(rot)  - is the rotational thermal energy
    E(trans)- is the translational thermal energy

Summary of contributions to the inner energy U:
Electronic energy                ...  -1865.32971485 Eh
Zero point energy                ...      0.15094468 Eh      94.72 kcal/mol
Thermal vibrational correction   ...      0.00878395 Eh       5.51 kcal/mol
Thermal rotational correction    ...      0.00141627 Eh       0.89 kcal/mol
Thermal translational correction ...      0.00141627 Eh       0.89 kcal/mol
-----------------------------------------------------------------------
Total thermal energy                  -1865.16715368 Eh

Summary of corrections to the electronic energy:
(perhaps to be used in another calculation)
Total thermal correction                  0.01161649 Eh       7.29 kcal/mol
Non-thermal (ZPE) correction              0.15094468 Eh      94.72 kcal/mol
-----------------------------------------------------------------------
Total correction                          0.16256117 Eh     102.01 kcal/mol

--------
ENTHALPY
--------

The enthalpy is H = U + kB*T
                kB is Boltzmann's constant
Total thermal energy              ...  -1865.16715368 Eh
Thermal Enthalpy correction       ...      0.00094421 Eh       0.59 kcal/mol
-----------------------------------------------------------------------
Total Enthalpy                    ...  -1865.16620947 Eh

Note: Only C1 symmetry has been detected, increase convergence thresholds
      if your molecule has a higher symmetry. Symmetry factor of 1.0 is
      used for the rotational entropy correction.

Note: Rotational entropy computed according to Herzberg
Infrared and Raman Spectra, Chapter V,1, Van Nostrand Reinhold, 1945
Point Group:  C1, Symmetry Number:   1
Rotational constants in cm-1:     0.099322     0.099311     0.053800

Vibrational entropy computed according to the QRRHO of S. Grimme
Chem.Eur.J. 2012 18 9955 using a reference frequency of 100.0 cm-1

-------
ENTROPY
-------

The entropy contributions are T*S = T*(S(el)+S(vib)+S(rot)+S(trans))
     S(el)   - electronic entropy
     S(vib)  - vibrational entropy
     S(rot)  - rotational entropy
     S(trans)- translational entropy
The entropies will be listed as multiplied by the temperature to get
units of energy

Electronic entropy                ...      0.00065446 Eh      0.41 kcal/mol
Vibrational entropy               ...      0.01585266 Eh      9.95 kcal/mol
Rotational entropy                ...      0.01307102 Eh      8.20 kcal/mol
Translational entropy             ...      0.01926094 Eh     12.09 kcal/mol
-----------------------------------------------------------------------
Final entropy term                ...      0.04883908 Eh     30.65 kcal/mol

In case the symmetry of your molecule has not been determined correctly
or in case you have a reason to use a different symmetry number we print
out the resulting rotational entropy values for sn=1,12:

 non-linear molecules -----------------------------------
|  sn= 1 | S(rot)=       0.01307102 Eh      8.20 kcal/mol|
|  sn= 2 | S(rot)=       0.01241656 Eh      7.79 kcal/mol|
|  sn= 3 | S(rot)=       0.01203373 Eh      7.55 kcal/mol|
|  sn= 4 | S(rot)=       0.01176211 Eh      7.38 kcal/mol|
|  sn= 5 | S(rot)=       0.01155142 Eh      7.25 kcal/mol|
|  sn= 6 | S(rot)=       0.01137927 Eh      7.14 kcal/mol|
|  sn= 7 | S(rot)=       0.01123373 Eh      7.05 kcal/mol|
|  sn= 8 | S(rot)=       0.01110765 Eh      6.97 kcal/mol|
|  sn= 9 | S(rot)=       0.01099644 Eh      6.90 kcal/mol|
|  sn=10 | S(rot)=       0.01089696 Eh      6.84 kcal/mol|
|  sn=11 | S(rot)=       0.01080697 Eh      6.78 kcal/mol|
|  sn=12 | S(rot)=       0.01072482 Eh      6.73 kcal/mol|
 linear molecules ---------------------------------------
|  Dinfh | S(rot)=       0.00808515 Eh      5.07 kcal/mol|

                             ****ORCA TERMINATED NORMALLY****
TOTAL RUN TIME: 0 days 0 hours 9 minutes 38 seconds 48 msec
